(written by ASE)

1728 atoms
2 atom types

0.0      34.019999999999996  xlo xhi
0.0      34.019999999999996  ylo yhi
0.0      34.019999999999996  zlo zhi

Masses

     1      35.449999990880691 # Cl
     2      22.989769274086012 # Na

Atoms # atomic

     1   2                       0                       0                       0
     2   1                   2.835                       0                       0
     3   2                       0                   2.835                   2.835
     4   1                   2.835                   2.835                   2.835
     5   2                   2.835                       0                   2.835
     6   1                       0                       0                   2.835
     7   2                   2.835                   2.835                       0
     8   1                       0                   2.835                       0
     9   2                       0                       0      5.6699999999999999
    10   1                   2.835                       0      5.6699999999999999
    11   2                       0                   2.835       8.504999999999999
    12   1                   2.835                   2.835       8.504999999999999
    13   2                   2.835                       0       8.504999999999999
    14   1                       0                       0       8.504999999999999
    15   2                   2.835                   2.835      5.6699999999999999
    16   1                       0                   2.835      5.6699999999999999
    17   2                       0                       0                   11.34
    18   1                   2.835                       0                   11.34
    19   2                       0                   2.835      14.175000000000001
    20   1                   2.835                   2.835      14.175000000000001
    21   2                   2.835                       0      14.175000000000001
    22   1                       0                       0      14.175000000000001
    23   2                   2.835                   2.835                   11.34
    24   1                       0                   2.835                   11.34
    25   2                       0                       0      17.009999999999998
    26   1                   2.835                       0      17.009999999999998
    27   2                       0                   2.835      19.844999999999999
    28   1                   2.835                   2.835      19.844999999999999
    29   2                   2.835                       0      19.844999999999999
    30   1                       0                       0      19.844999999999999
    31   2                   2.835                   2.835      17.009999999999998
    32   1                       0                   2.835      17.009999999999998
    33   2                       0                       0                   22.68
    34   1                   2.835                       0                   22.68
    35   2                       0                   2.835      25.515000000000001
    36   1                   2.835                   2.835      25.515000000000001
    37   2                   2.835                       0      25.515000000000001
    38   1                       0                       0      25.515000000000001
    39   2                   2.835                   2.835                   22.68
    40   1                       0                   2.835                   22.68
    41   2                       0                       0      28.350000000000001
    42   1                   2.835                       0      28.350000000000001
    43   2                       0                   2.835      31.185000000000002
    44   1                   2.835                   2.835      31.185000000000002
    45   2                   2.835                       0      31.185000000000002
    46   1                       0                       0      31.185000000000002
    47   2                   2.835                   2.835      28.350000000000001
    48   1                       0                   2.835      28.350000000000001
    49   2                       0      5.6699999999999999                       0
    50   1                   2.835      5.6699999999999999                       0
    51   2                       0       8.504999999999999                   2.835
    52   1                   2.835       8.504999999999999                   2.835
    53   2                   2.835      5.6699999999999999                   2.835
    54   1                       0      5.6699999999999999                   2.835
    55   2                   2.835       8.504999999999999                       0
    56   1                       0       8.504999999999999                       0
    57   2                       0      5.6699999999999999      5.6699999999999999
    58   1                   2.835      5.6699999999999999      5.6699999999999999
    59   2                       0       8.504999999999999       8.504999999999999
    60   1                   2.835       8.504999999999999       8.504999999999999
    61   2                   2.835      5.6699999999999999       8.504999999999999
    62   1                       0      5.6699999999999999       8.504999999999999
    63   2                   2.835       8.504999999999999      5.6699999999999999
    64   1                       0       8.504999999999999      5.6699999999999999
    65   2                       0      5.6699999999999999                   11.34
    66   1                   2.835      5.6699999999999999                   11.34
    67   2                       0       8.504999999999999      14.175000000000001
    68   1                   2.835       8.504999999999999      14.175000000000001
    69   2                   2.835      5.6699999999999999      14.175000000000001
    70   1                       0      5.6699999999999999      14.175000000000001
    71   2                   2.835       8.504999999999999                   11.34
    72   1                       0       8.504999999999999                   11.34
    73   2                       0      5.6699999999999999      17.009999999999998
    74   1                   2.835      5.6699999999999999      17.009999999999998
    75   2                       0       8.504999999999999      19.844999999999999
    76   1                   2.835       8.504999999999999      19.844999999999999
    77   2                   2.835      5.6699999999999999      19.844999999999999
    78   1                       0      5.6699999999999999      19.844999999999999
    79   2                   2.835       8.504999999999999      17.009999999999998
    80   1                       0       8.504999999999999      17.009999999999998
    81   2                       0      5.6699999999999999                   22.68
    82   1                   2.835      5.6699999999999999                   22.68
    83   2                       0       8.504999999999999      25.515000000000001
    84   1                   2.835       8.504999999999999      25.515000000000001
    85   2                   2.835      5.6699999999999999      25.515000000000001
    86   1                       0      5.6699999999999999      25.515000000000001
    87   2                   2.835       8.504999999999999                   22.68
    88   1                       0       8.504999999999999                   22.68
    89   2                       0      5.6699999999999999      28.350000000000001
    90   1                   2.835      5.6699999999999999      28.350000000000001
    91   2                       0       8.504999999999999      31.185000000000002
    92   1                   2.835       8.504999999999999      31.185000000000002
    93   2                   2.835      5.6699999999999999      31.185000000000002
    94   1                       0      5.6699999999999999      31.185000000000002
    95   2                   2.835       8.504999999999999      28.350000000000001
    96   1                       0       8.504999999999999      28.350000000000001
    97   2                       0                   11.34                       0
    98   1                   2.835                   11.34                       0
    99   2                       0      14.175000000000001                   2.835
   100   1                   2.835      14.175000000000001                   2.835
   101   2                   2.835                   11.34                   2.835
   102   1                       0                   11.34                   2.835
   103   2                   2.835      14.175000000000001                       0
   104   1                       0      14.175000000000001                       0
   105   2                       0                   11.34      5.6699999999999999
   106   1                   2.835                   11.34      5.6699999999999999
   107   2                       0      14.175000000000001       8.504999999999999
   108   1                   2.835      14.175000000000001       8.504999999999999
   109   2                   2.835                   11.34       8.504999999999999
   110   1                       0                   11.34       8.504999999999999
   111   2                   2.835      14.175000000000001      5.6699999999999999
   112   1                       0      14.175000000000001      5.6699999999999999
   113   2                       0                   11.34                   11.34
   114   1                   2.835                   11.34                   11.34
   115   2                       0      14.175000000000001      14.175000000000001
   116   1                   2.835      14.175000000000001      14.175000000000001
   117   2                   2.835                   11.34      14.175000000000001
   118   1                       0                   11.34      14.175000000000001
   119   2                   2.835      14.175000000000001                   11.34
   120   1                       0      14.175000000000001                   11.34
   121   2                       0                   11.34      17.009999999999998
   122   1                   2.835                   11.34      17.009999999999998
   123   2                       0      14.175000000000001      19.844999999999999
   124   1                   2.835      14.175000000000001      19.844999999999999
   125   2                   2.835                   11.34      19.844999999999999
   126   1                       0                   11.34      19.844999999999999
   127   2                   2.835      14.175000000000001      17.009999999999998
   128   1                       0      14.175000000000001      17.009999999999998
   129   2                       0                   11.34                   22.68
   130   1                   2.835                   11.34                   22.68
   131   2                       0      14.175000000000001      25.515000000000001
   132   1                   2.835      14.175000000000001      25.515000000000001
   133   2                   2.835                   11.34      25.515000000000001
   134   1                       0                   11.34      25.515000000000001
   135   2                   2.835      14.175000000000001                   22.68
   136   1                       0      14.175000000000001                   22.68
   137   2                       0                   11.34      28.350000000000001
   138   1                   2.835                   11.34      28.350000000000001
   139   2                       0      14.175000000000001      31.185000000000002
   140   1                   2.835      14.175000000000001      31.185000000000002
   141   2                   2.835                   11.34      31.185000000000002
   142   1                       0                   11.34      31.185000000000002
   143   2                   2.835      14.175000000000001      28.350000000000001
   144   1                       0      14.175000000000001      28.350000000000001
   145   2                       0      17.009999999999998                       0
   146   1                   2.835      17.009999999999998                       0
   147   2                       0      19.844999999999999                   2.835
   148   1                   2.835      19.844999999999999                   2.835
   149   2                   2.835      17.009999999999998                   2.835
   150   1                       0      17.009999999999998                   2.835
   151   2                   2.835      19.844999999999999                       0
   152   1                       0      19.844999999999999                       0
   153   2                       0      17.009999999999998      5.6699999999999999
   154   1                   2.835      17.009999999999998      5.6699999999999999
   155   2                       0      19.844999999999999       8.504999999999999
   156   1                   2.835      19.844999999999999       8.504999999999999
   157   2                   2.835      17.009999999999998       8.504999999999999
   158   1                       0      17.009999999999998       8.504999999999999
   159   2                   2.835      19.844999999999999      5.6699999999999999
   160   1                       0      19.844999999999999      5.6699999999999999
   161   2                       0      17.009999999999998                   11.34
   162   1                   2.835      17.009999999999998                   11.34
   163   2                       0      19.844999999999999      14.175000000000001
   164   1                   2.835      19.844999999999999      14.175000000000001
   165   2                   2.835      17.009999999999998      14.175000000000001
   166   1                       0      17.009999999999998      14.175000000000001
   167   2                   2.835      19.844999999999999                   11.34
   168   1                       0      19.844999999999999                   11.34
   169   2                       0      17.009999999999998      17.009999999999998
   170   1                   2.835      17.009999999999998      17.009999999999998
   171   2                       0      19.844999999999999      19.844999999999999
   172   1                   2.835      19.844999999999999      19.844999999999999
   173   2                   2.835      17.009999999999998      19.844999999999999
   174   1                       0      17.009999999999998      19.844999999999999
   175   2                   2.835      19.844999999999999      17.009999999999998
   176   1                       0      19.844999999999999      17.009999999999998
   177   2                       0      17.009999999999998                   22.68
   178   1                   2.835      17.009999999999998                   22.68
   179   2                       0      19.844999999999999      25.515000000000001
   180   1                   2.835      19.844999999999999      25.515000000000001
   181   2                   2.835      17.009999999999998      25.515000000000001
   182   1                       0      17.009999999999998      25.515000000000001
   183   2                   2.835      19.844999999999999                   22.68
   184   1                       0      19.844999999999999                   22.68
   185   2                       0      17.009999999999998      28.350000000000001
   186   1                   2.835      17.009999999999998      28.350000000000001
   187   2                       0      19.844999999999999      31.185000000000002
   188   1                   2.835      19.844999999999999      31.185000000000002
   189   2                   2.835      17.009999999999998      31.185000000000002
   190   1                       0      17.009999999999998      31.185000000000002
   191   2                   2.835      19.844999999999999      28.350000000000001
   192   1                       0      19.844999999999999      28.350000000000001
   193   2                       0                   22.68                       0
   194   1                   2.835                   22.68                       0
   195   2                       0      25.515000000000001                   2.835
   196   1                   2.835      25.515000000000001                   2.835
   197   2                   2.835                   22.68                   2.835
   198   1                       0                   22.68                   2.835
   199   2                   2.835      25.515000000000001                       0
   200   1                       0      25.515000000000001                       0
   201   2                       0                   22.68      5.6699999999999999
   202   1                   2.835                   22.68      5.6699999999999999
   203   2                       0      25.515000000000001       8.504999999999999
   204   1                   2.835      25.515000000000001       8.504999999999999
   205   2                   2.835                   22.68       8.504999999999999
   206   1                       0                   22.68       8.504999999999999
   207   2                   2.835      25.515000000000001      5.6699999999999999
   208   1                       0      25.515000000000001      5.6699999999999999
   209   2                       0                   22.68                   11.34
   210   1                   2.835                   22.68                   11.34
   211   2                       0      25.515000000000001      14.175000000000001
   212   1                   2.835      25.515000000000001      14.175000000000001
   213   2                   2.835                   22.68      14.175000000000001
   214   1                       0                   22.68      14.175000000000001
   215   2                   2.835      25.515000000000001                   11.34
   216   1                       0      25.515000000000001                   11.34
   217   2                       0                   22.68      17.009999999999998
   218   1                   2.835                   22.68      17.009999999999998
   219   2                       0      25.515000000000001      19.844999999999999
   220   1                   2.835      25.515000000000001      19.844999999999999
   221   2                   2.835                   22.68      19.844999999999999
   222   1                       0                   22.68      19.844999999999999
   223   2                   2.835      25.515000000000001      17.009999999999998
   224   1                       0      25.515000000000001      17.009999999999998
   225   2                       0                   22.68                   22.68
   226   1                   2.835                   22.68                   22.68
   227   2                       0      25.515000000000001      25.515000000000001
   228   1                   2.835      25.515000000000001      25.515000000000001
   229   2                   2.835                   22.68      25.515000000000001
   230   1                       0                   22.68      25.515000000000001
   231   2                   2.835      25.515000000000001                   22.68
   232   1                       0      25.515000000000001                   22.68
   233   2                       0                   22.68      28.350000000000001
   234   1                   2.835                   22.68      28.350000000000001
   235   2                       0      25.515000000000001      31.185000000000002
   236   1                   2.835      25.515000000000001      31.185000000000002
   237   2                   2.835                   22.68      31.185000000000002
   238   1                       0                   22.68      31.185000000000002
   239   2                   2.835      25.515000000000001      28.350000000000001
   240   1                       0      25.515000000000001      28.350000000000001
   241   2                       0      28.350000000000001                       0
   242   1                   2.835      28.350000000000001                       0
   243   2                       0      31.185000000000002                   2.835
   244   1                   2.835      31.185000000000002                   2.835
   245   2                   2.835      28.350000000000001                   2.835
   246   1                       0      28.350000000000001                   2.835
   247   2                   2.835      31.185000000000002                       0
   248   1                       0      31.185000000000002                       0
   249   2                       0      28.350000000000001      5.6699999999999999
   250   1                   2.835      28.350000000000001      5.6699999999999999
   251   2                       0      31.185000000000002       8.504999999999999
   252   1                   2.835      31.185000000000002       8.504999999999999
   253   2                   2.835      28.350000000000001       8.504999999999999
   254   1                       0      28.350000000000001       8.504999999999999
   255   2                   2.835      31.185000000000002      5.6699999999999999
   256   1                       0      31.185000000000002      5.6699999999999999
   257   2                       0      28.350000000000001                   11.34
   258   1                   2.835      28.350000000000001                   11.34
   259   2                       0      31.185000000000002      14.175000000000001
   260   1                   2.835      31.185000000000002      14.175000000000001
   261   2                   2.835      28.350000000000001      14.175000000000001
   262   1                       0      28.350000000000001      14.175000000000001
   263   2                   2.835      31.185000000000002                   11.34
   264   1                       0      31.185000000000002                   11.34
   265   2                       0      28.350000000000001      17.009999999999998
   266   1                   2.835      28.350000000000001      17.009999999999998
   267   2                       0      31.185000000000002      19.844999999999999
   268   1                   2.835      31.185000000000002      19.844999999999999
   269   2                   2.835      28.350000000000001      19.844999999999999
   270   1                       0      28.350000000000001      19.844999999999999
   271   2                   2.835      31.185000000000002      17.009999999999998
   272   1                       0      31.185000000000002      17.009999999999998
   273   2                       0      28.350000000000001                   22.68
   274   1                   2.835      28.350000000000001                   22.68
   275   2                       0      31.185000000000002      25.515000000000001
   276   1                   2.835      31.185000000000002      25.515000000000001
   277   2                   2.835      28.350000000000001      25.515000000000001
   278   1                       0      28.350000000000001      25.515000000000001
   279   2                   2.835      31.185000000000002                   22.68
   280   1                       0      31.185000000000002                   22.68
   281   2                       0      28.350000000000001      28.350000000000001
   282   1                   2.835      28.350000000000001      28.350000000000001
   283   2                       0      31.185000000000002      31.185000000000002
   284   1                   2.835      31.185000000000002      31.185000000000002
   285   2                   2.835      28.350000000000001      31.185000000000002
   286   1                       0      28.350000000000001      31.185000000000002
   287   2                   2.835      31.185000000000002      28.350000000000001
   288   1                       0      31.185000000000002      28.350000000000001
   289   2      5.6699999999999999                       0                       0
   290   1       8.504999999999999                       0                       0
   291   2      5.6699999999999999                   2.835                   2.835
   292   1       8.504999999999999                   2.835                   2.835
   293   2       8.504999999999999                       0                   2.835
   294   1      5.6699999999999999                       0                   2.835
   295   2       8.504999999999999                   2.835                       0
   296   1      5.6699999999999999                   2.835                       0
   297   2      5.6699999999999999                       0      5.6699999999999999
   298   1       8.504999999999999                       0      5.6699999999999999
   299   2      5.6699999999999999                   2.835       8.504999999999999
   300   1       8.504999999999999                   2.835       8.504999999999999
   301   2       8.504999999999999                       0       8.504999999999999
   302   1      5.6699999999999999                       0       8.504999999999999
   303   2       8.504999999999999                   2.835      5.6699999999999999
   304   1      5.6699999999999999                   2.835      5.6699999999999999
   305   2      5.6699999999999999                       0                   11.34
   306   1       8.504999999999999                       0                   11.34
   307   2      5.6699999999999999                   2.835      14.175000000000001
   308   1       8.504999999999999                   2.835      14.175000000000001
   309   2       8.504999999999999                       0      14.175000000000001
   310   1      5.6699999999999999                       0      14.175000000000001
   311   2       8.504999999999999                   2.835                   11.34
   312   1      5.6699999999999999                   2.835                   11.34
   313   2      5.6699999999999999                       0      17.009999999999998
   314   1       8.504999999999999                       0      17.009999999999998
   315   2      5.6699999999999999                   2.835      19.844999999999999
   316   1       8.504999999999999                   2.835      19.844999999999999
   317   2       8.504999999999999                       0      19.844999999999999
   318   1      5.6699999999999999                       0      19.844999999999999
   319   2       8.504999999999999                   2.835      17.009999999999998
   320   1      5.6699999999999999                   2.835      17.009999999999998
   321   2      5.6699999999999999                       0                   22.68
   322   1       8.504999999999999                       0                   22.68
   323   2      5.6699999999999999                   2.835      25.515000000000001
   324   1       8.504999999999999                   2.835      25.515000000000001
   325   2       8.504999999999999                       0      25.515000000000001
   326   1      5.6699999999999999                       0      25.515000000000001
   327   2       8.504999999999999                   2.835                   22.68
   328   1      5.6699999999999999                   2.835                   22.68
   329   2      5.6699999999999999                       0      28.350000000000001
   330   1       8.504999999999999                       0      28.350000000000001
   331   2      5.6699999999999999                   2.835      31.185000000000002
   332   1       8.504999999999999                   2.835      31.185000000000002
   333   2       8.504999999999999                       0      31.185000000000002
   334   1      5.6699999999999999                       0      31.185000000000002
   335   2       8.504999999999999                   2.835      28.350000000000001
   336   1      5.6699999999999999                   2.835      28.350000000000001
   337   2      5.6699999999999999      5.6699999999999999                       0
   338   1       8.504999999999999      5.6699999999999999                       0
   339   2      5.6699999999999999       8.504999999999999                   2.835
   340   1       8.504999999999999       8.504999999999999                   2.835
   341   2       8.504999999999999      5.6699999999999999                   2.835
   342   1      5.6699999999999999      5.6699999999999999                   2.835
   343   2       8.504999999999999       8.504999999999999                       0
   344   1      5.6699999999999999       8.504999999999999                       0
   345   2      5.6699999999999999      5.6699999999999999      5.6699999999999999
   346   1       8.504999999999999      5.6699999999999999      5.6699999999999999
   347   2      5.6699999999999999       8.504999999999999       8.504999999999999
   348   1       8.504999999999999       8.504999999999999       8.504999999999999
   349   2       8.504999999999999      5.6699999999999999       8.504999999999999
   350   1      5.6699999999999999      5.6699999999999999       8.504999999999999
   351   2       8.504999999999999       8.504999999999999      5.6699999999999999
   352   1      5.6699999999999999       8.504999999999999      5.6699999999999999
   353   2      5.6699999999999999      5.6699999999999999                   11.34
   354   1       8.504999999999999      5.6699999999999999                   11.34
   355   2      5.6699999999999999       8.504999999999999      14.175000000000001
   356   1       8.504999999999999       8.504999999999999      14.175000000000001
   357   2       8.504999999999999      5.6699999999999999      14.175000000000001
   358   1      5.6699999999999999      5.6699999999999999      14.175000000000001